version 2
run General-0-20211219-14:14:30-7516
attr configname General
attr datetime 20211219-14:14:30
attr experiment General
attr inifile omnetpp.ini
attr iterationvars ""
attr iterationvarsf ""
attr measurement ""
attr network Network
attr processid 7516
attr repetition 0
attr replication #0
attr resultdir results
attr runnumber 0
attr seedset 0

vector 0 Network.C[2] HopCount ETV
vector 1 Network.C[1] HopCount ETV
vector 2 Network.C[5] HopCount ETV
vector 3 Network.C[0] HopCount ETV
vector 4 Network.C[3] HopCount ETV
vector 5 Network.C[4] HopCount ETV
0	25	0.7	4
0	45	2.7	1
0	51	3.3	1
0	63	4.5	0
0	71	5.3	2
0	103	8.5	1
0	109	9.1	2
0	121	10.3	4
0	123	10.5	0
0	129	11.1	0
0	151	13.3	2
0	209	19.1	1
0	223	20.5	2
0	231	21.3	0
0	253	23.5	0
0	283	26.5	22
0	307	28.9	1
0	343	32.5	9
0	349	33.1	3
1	26	0.8	0
1	62	4.4	0
1	66	4.8	0
1	122	10.4	0
1	128	11	1
1	168	15	1
1	170	15.2	0
1	186	16.8	1
1	218	20	1
1	230	21.2	1
1	252	23.4	1
1	254	23.6	0
1	324	30.6	0
2	38	2	11
2	56	3.8	2
2	106	8.8	2
2	114	9.6	4
2	140	12.2	0
2	166	14.8	8
2	184	16.6	13
2	198	18	1
2	214	19.6	0
2	228	21	1
2	236	21.8	2
2	250	23.2	10
2	258	24	3
2	260	24.2	0
2	304	28.6	8
2	330	31.2	1
3	43	2.5	4
3	53	3.5	1
3	61	4.3	4
3	65	4.7	1
3	85	6.7	3
3	137	11.9	4
3	145	12.7	4
3	157	13.9	2
3	193	17.5	5
3	207	18.9	6
3	233	21.5	1
3	239	22.1	2
3	287	26.9	1
3	295	27.7	2
4	48	3	2
4	68	5	1
4	76	5.8	4
4	78	6	0
4	80	6.2	0
4	100	8.2	14
4	116	9.8	1
4	126	10.8	2
4	132	11.4	2
4	148	13	2
4	154	13.6	2
4	196	17.8	2
4	200	18.2	1
4	212	19.4	2
4	216	19.8	1
4	220	20.2	1
4	226	20.8	2
4	292	27.4	4
4	322	30.4	14
4	328	31	3
4	332	31.4	1
5	49	3.1	0
5	77	5.9	0
5	79	6.1	0
5	81	6.3	0
5	101	8.3	0
5	139	12.1	1
5	169	15.1	0
5	187	16.9	0
5	213	19.5	0
5	259	24.1	0
5	285	26.7	1
5	305	28.7	0
5	323	30.5	0
5	333	31.5	0
5	345	32.7	1
0	369	35.1	1
1	356	33.8	0
1	374	35.6	0
1	376	35.8	0
1	382	36.4	1
2	352	33.4	2
2	380	36.2	3
3	355	33.7	2
3	357	33.9	0
3	367	34.9	1
3	371	35.3	1
3	383	36.5	0
4	364	34.6	6
5	365	34.7	0
5	373	35.5	1
5	375	35.7	0

