version 2
run General-0-20211219-14:57:27-10796
attr configname General
attr datetime 20211219-14:57:27
attr experiment General
attr inifile omnetpp.ini
attr iterationvars ""
attr iterationvarsf ""
attr measurement ""
attr network Network
attr processid 10796
attr repetition 0
attr replication #0
attr resultdir results
attr runnumber 0
attr seedset 0

vector 0 Network.C[4] HopCount ETV
vector 1 Network.C[5] HopCount ETV
vector 2 Network.C[0] HopCount ETV
vector 3 Network.C[3] HopCount ETV
vector 4 Network.C[1] HopCount ETV
vector 5 Network.C[2] HopCount ETV
0	34	0.5	1
0	54	2.5	1
0	70	4.1	1
0	100	7.1	1
0	106	7.7	1
0	112	8.3	1
0	118	8.9	0
0	134	10.5	0
0	138	10.9	1
0	140	11.1	0
0	142	11.3	0
0	146	11.7	1
0	174	14.5	1
0	218	18.9	0
0	238	20.9	1
0	272	24.3	1
0	274	24.5	0
0	282	25.3	0
0	300	27.1	1
0	310	28.1	1
0	330	30.1	0
0	344	31.5	0
0	354	32.5	1
0	362	33.3	0
0	376	34.7	0
0	388	35.9	1
1	35	0.6	0
1	47	1.8	1
1	61	3.2	1
1	65	3.6	1
1	77	4.8	2
1	89	6	1
1	113	8.4	0
1	153	12.4	2
1	159	13	2
1	167	13.8	2
1	181	15.2	2
1	187	15.8	2
1	243	21.4	2
1	257	22.8	2
1	275	24.6	0
1	283	25.4	0
1	287	25.8	1
1	295	26.6	2
1	303	27.4	1
1	315	28.6	1
1	327	29.8	1
1	335	30.6	2
1	347	31.8	1
1	361	33.2	1
1	373	34.4	1
1	377	34.8	0
1	397	36.8	1
2	38	0.9	2
2	52	2.3	1
2	58	2.9	0
2	68	3.9	2
2	74	4.5	2
2	80	5.1	2
2	94	6.5	2
2	96	6.7	0
2	110	8.1	1
2	116	8.7	2
2	122	9.3	1
2	130	10.1	1
2	144	11.5	1
2	156	12.7	2
2	164	13.5	2
2	170	14.1	2
2	178	14.9	1
2	190	16.1	0
2	228	19.9	1
2	236	20.7	1
2	240	21.1	1
2	246	21.7	2
2	260	23.1	2
2	266	23.7	2
2	270	24.1	1
2	278	24.9	2
2	292	26.3	2
2	298	26.9	0
2	308	27.9	0
2	318	28.9	2
2	322	29.3	1
2	332	30.3	1
2	352	32.3	2
2	364	33.5	1
3	41	1.2	2
3	45	1.6	1
3	71	4.2	0
3	83	5.4	2
3	87	5.8	1
3	91	6.2	1
3	101	7.2	0
3	125	9.6	1
3	133	10.4	2
3	139	11	0
3	141	11.2	0
3	147	11.8	0
3	161	13.2	1
3	195	16.6	2
3	201	17.2	2
3	207	17.8	2
3	213	18.4	2
3	223	19.4	2
3	231	20.2	2
3	251	22.2	2
3	263	23.4	2
3	273	24.4	0
3	281	25.2	2
3	289	26	1
3	305	27.6	1
3	311	28.2	0
3	325	29.6	2
3	337	30.8	1
3	343	31.4	2
3	345	31.6	0
3	349	32	1
3	359	33	2
3	369	34	2
3	375	34.6	1
3	379	35	1
3	383	35.4	1
3	389	36	0
3	395	36.6	2
4	43	1.4	1
4	57	2.8	0
4	59	3	0
4	63	3.4	1
4	85	5.6	1
4	95	6.6	0
4	117	8.8	0
4	119	9	0
4	123	9.4	0
4	135	10.6	0
4	189	16	1
4	209	18	1
4	215	18.6	1
4	217	18.8	0
4	285	25.6	1
4	297	26.8	1
4	301	27.2	0
4	307	27.8	1
4	313	28.4	1
4	319	29	0
4	329	30	1
4	371	34.2	1
4	381	35.2	1
4	391	36.2	1
5	50	2.1	2
5	56	2.7	1
5	98	6.9	1
5	104	7.5	2
5	108	7.9	1
5	120	9.1	0
5	128	9.9	2
5	136	10.7	0
5	150	12.1	2
5	172	14.3	1
5	176	14.7	1
5	184	15.5	2
5	192	16.3	1
5	198	16.9	2
5	204	17.5	2
5	210	18.1	0
5	216	18.7	0
5	220	19.1	1
5	226	19.7	2
5	234	20.5	2
5	248	21.9	1
5	254	22.5	2
5	268	23.9	1
5	320	29.1	0
5	340	31.1	2
5	356	32.7	1
5	366	33.7	1
5	386	35.7	2
5	392	36.3	0

